11
 energy: -7.633884294784 gnorm: 44.297618115509 xtb: 6.6.1 (8d0f1dd)
C           -0.18022684100000        0.36094511800000       -1.12030497000000
C           -0.18022684100000        1.55929211800000       -0.40786097000000
C           -0.18022684100000        1.50319111800000        0.98693503000000
N           -0.18022684100000        0.36094511800000        1.29018350000000
C           -0.18022684100000       -0.78130088200000        0.98693503000000
C           -0.18022684100000       -0.83740188200000       -0.40786097000000
I           -0.18022684100000        0.36094511800000       -2.20654697000000
I           -0.18022684100000        2.51795011800000       -0.91707797000000
I           -0.18022684100000        2.42128911800000        1.57209903000000
I           -0.18022684100000       -1.69939888200000        1.57209903000000
I           -0.18022684100000       -1.79605988200000       -0.91707797000000
11
 energy: -27.814178664471 gnorm: 7.806471640224 xtb: 6.6.1 (8d0f1dd)
C           -0.18022684100004        0.36094511792480       -0.96463473725947
C           -0.18022684100000        1.42177387396207       -0.33503535985619
C           -0.18022684100007        1.37553790843698        0.90449568076271
N           -0.18022684099987        0.36094511806875        1.29321856958851
C           -0.18022684100018       -0.65364767258951        0.90449568078906
C           -0.18022684099999       -0.69988363821028       -0.33503536000806
I           -0.18022684099999        0.36094511801398       -2.36926653876547
I           -0.18022684099999        2.66208530140029       -0.99381835717066
I           -0.18022684099996        2.55555886954663        1.66046028955160
I           -0.18022684099996       -1.83366863337277        1.66046028939733
I           -0.18022684099994       -1.94019506518095       -0.99381835702936
11
 energy: -29.460575983254 gnorm: 5.428811180027 xtb: 6.6.1 (8d0f1dd)
C           -0.18022684099935        0.36094511947668       -0.98885616259102
C           -0.18022684099918        1.45190832154295       -0.34913386374831
C           -0.18022684100040        1.41835674592359        0.91619796057770
N           -0.18022684099523        0.36094511694311        1.38011599707789
C           -0.18022684100292       -0.69646650347258        0.91619795877409
C           -0.18022684099942       -0.73001809249127       -0.34913386632565
I           -0.18022684100051        0.36094511756865       -2.45873033788773
I           -0.18022684100105        2.74592941236381       -1.04019319725918
I           -0.18022684100118        2.64495208815111        1.72262525209282
I           -0.18022684100100       -1.92306185653306        1.72262525439737
I           -0.18022684099976       -2.02403917147297       -1.04019319510797
11
 energy: -31.041061562263 gnorm: 2.483779775681 xtb: 6.6.1 (8d0f1dd)
C           -0.18022684099733        0.36094512195984       -0.96265498568843
C           -0.18022684099633        1.42552019910678       -0.33914769983397
C           -0.18022684100014        1.39743826751200        0.88928075880680
N           -0.18022684098953        0.36094511641449        1.44235108843952
C           -0.18022684100685       -0.67554801740895        0.88928075547218
C           -0.18022684099828       -0.70362997166547       -0.33914769942439
I           -0.18022684100193        0.36094511449089       -2.55618189800282
I           -0.18022684100319        2.83488829330469       -1.08874843218287
I           -0.18022684100398        2.71074798932395        1.79261917611736
I           -0.18022684100185       -1.98885775461460        1.79261917310673
I           -0.18022684100060       -2.11299806042362       -1.08874843681011
11
 energy: -31.823664998907 gnorm: 1.385483640077 xtb: 6.6.1 (8d0f1dd)
C           -0.18022684099340        0.36094511645317       -0.99602133061725
C           -0.18022684099170        1.45203929340585       -0.35697248827405
C           -0.18022684099882        1.41186560528219        0.90796871903876
N           -0.18022684097845        0.36094512244119        1.53543169203970
C           -0.18022684101137       -0.68997536853150        0.90796872069718
C           -0.18022684099633       -0.73014905361275       -0.35697248729126
I           -0.18022684100426        0.36094510986918       -2.68436818836525
I           -0.18022684100735        2.94432043276432       -1.14376652264204
I           -0.18022684101021        2.79326494153384        1.88101011593351
I           -0.18022684100523       -2.07137469626037        1.88101010308349
I           -0.18022684100290       -2.22243020534512       -1.14376653360279
11
 energy: -32.268345991768 gnorm: 0.724648505878 xtb: 6.6.1 (8d0f1dd)
C           -0.18022684098588        0.36094512494836       -1.02448058718656
C           -0.18022684098307        1.47591217853147       -0.36853889203070
C           -0.18022684099345        1.42339416794536        0.92311973393319
N           -0.18022684096452        0.36094511528524        1.61414643934996
C           -0.18022684101334       -0.70150391057658        0.92311973099643
C           -0.18022684099191       -0.75402196276070       -0.36853889430910
I           -0.18022684100912        0.36094511265479       -2.80688080670601
I           -0.18022684101530        3.05457972214841       -1.19436151241795
I           -0.18022684102198        2.87715885736787        1.96414904675799
I           -0.18022684101297       -2.15526863707128        1.96414905076645
I           -0.18022684100845       -2.33268947047293       -1.19436150915370
11
 energy: -32.496290207304 gnorm: 0.384167629391 xtb: 6.6.1 (8d0f1dd)
C           -0.18022684097300        0.36094511231092       -1.05982754920808
C           -0.18022684096892        1.50470074392967       -0.38035229322337
C           -0.18022684098185        1.43577244598560        0.94506029012458
N           -0.18022684094825        0.36094512630332        1.66889881331111
C           -0.18022684100852       -0.71388218287857        0.94506028032418
C           -0.18022684098337       -0.78281053159221       -0.38035231337095
I           -0.18022684101755        0.36094509624938       -2.92733449186357
I           -0.18022684102862        3.16227895298438       -1.23923052095728
I           -0.18022684104205        2.95220419120671        2.04941506112581
I           -0.18022684102786       -2.23031396233926        2.04941504622020
I           -0.18022684102003       -2.44038869415995       -1.23923052248263
11
 energy: -32.606639509427 gnorm: 0.200305532424 xtb: 6.6.1 (8d0f1dd)
C           -0.18022684095251        0.36094511870982       -1.09018198573398
C           -0.18022684094749        1.53232807027968       -0.38927149383500
C           -0.18022684096260        1.45081045228432        0.96632432722926
N           -0.18022684092653        0.36094512123810        1.70022453995487
C           -0.18022684099429       -0.72892017509487        0.96632431097070
C           -0.18022684096901       -0.81043786686832       -0.38927150855921
I           -0.18022684103037        0.36094509805833       -3.03596230478437
I           -0.18022684104943        3.26209622250680       -1.27907191894807
I           -0.18022684107400        3.02158863457210        2.13073987781278
I           -0.18022684105305       -2.29969841988807        2.13073986604655
I           -0.18022684104070       -2.54020595779790       -1.27907191015352
11
 energy: -32.652230554539 gnorm: 0.103655675093 xtb: 6.6.1 (8d0f1dd)
C           -0.18022684153593        0.36094511575412       -1.11164226358053
C           -0.18022684067727        1.55589193961454       -0.39521625287835
C           -0.18022684150255        1.46764856677945        0.98438649429494
N           -0.18022684180821        0.36094512178585        1.71005283259481
C           -0.18022684087154       -0.74575828343217        0.98438647115274
C           -0.18022684123399       -0.83400172649821       -0.39521626279904
I           -0.18022684140494        0.36094509415290       -3.12503142986276
I           -0.18022683986086        3.34719670193460       -1.31273138449882
I           -0.18022684113179        3.08193679109128        2.20263249339347
I           -0.18022684013707       -2.36004658183718        2.20263247980243
I           -0.18022684083585       -2.62530644134517       -1.31273137761889
11
 energy: -32.664830261116 gnorm: 0.060829605066 xtb: 6.6.1 (8d0f1dd)
C           -0.18022684144104        0.36094512019823       -1.11938395063482
C           -0.18022684147861        1.56992677896097       -0.39718159876228
C           -0.18022684156064        1.48079201298326        0.99442789978141
N           -0.18022684048525        0.36094511950715        1.70194279845362
C           -0.18022684147971       -0.75890172470817        0.99442787626549
C           -0.18022684098519       -0.84803656621667       -0.39718160384225
I           -0.18022684095982        0.36094509738985       -3.17989013479191
I           -0.18022684062566        3.40329624448815       -1.33465440622897
I           -0.18022684050807        3.12276879496002        2.25183466013026
I           -0.18022684107291       -2.40087859790257        2.25183465618395
I           -0.18022684040310       -2.68140598166021       -1.33465439655451
11
 energy: -32.667572276143 gnorm: 0.041747171927 xtb: 6.6.1 (8d0f1dd)
C           -0.18022684212426        0.36094512091671       -1.11645601027024
C           -0.18022684152682        1.57434633972096       -0.39656235573841
C           -0.18022684141010        1.48852716890313        0.99754478231351
N           -0.18022684420737        0.36094512028820        1.68675008582409
C           -0.18022684115320       -0.76663687828729        0.99754475814247
C           -0.18022684115691       -0.85245612545094       -0.39656236010471
I           -0.18022684132106        0.36094509803595       -3.20151530407108
I           -0.18022683961668        3.42866623198154       -1.34547730000092
I           -0.18022683925523        3.14331536255141        2.27586639601429
I           -0.18022683958802       -2.42142517298098        2.27586639944889
I           -0.18022683964034       -2.70677596767869       -1.34547729155788
11
 energy: -32.668602569677 gnorm: 0.027948143224 xtb: 6.6.1 (8d0f1dd)
C           -0.18022683984418        0.36094511573136       -1.10906786459884
C           -0.18022684165604        1.57434707780923       -0.39500244832843
C           -0.18022684205867        1.49370262330369        0.99789219707296
N           -0.18022683373741        0.36094512965561        1.66944211786522
C           -0.18022684183326       -0.77181233271336        0.99789216687848
C           -0.18022684130875       -0.85245685863759       -0.39500245538764
I           -0.18022683960713        0.36094509366600       -3.20723042357604
I           -0.18022684247892        3.43890806278015       -1.35094515738179
I           -0.18022684283528        3.15410333414699        2.28724441102482
I           -0.18022684314432       -2.43221314474968        2.28724441102859
I           -0.18022684249603       -2.71701780299238       -1.35094515459732
11
 energy: -32.669165651120 gnorm: 0.017417147619 xtb: 6.6.1 (8d0f1dd)
C           -0.18022684887734        0.36094511359296       -1.09982402960041
C           -0.18022684139290        1.57224448443685       -0.39316816250765
C           -0.18022684046954        1.49770182048138        0.99727765234292
N           -0.18022687106022        0.36094513685241        1.65195563974965
C           -0.18022684024568       -0.77581153630560        0.99727762305398
C           -0.18022684123855       -0.85035425942019       -0.39316817034286
I           -0.18022684591078        0.36094509306953       -3.20355536860153
I           -0.18022683112849        3.44001092393143       -1.35316293926448
I           -0.18022682967089        3.15932606985175        2.29052624846441
I           -0.18022682971405       -2.43743587908490        2.29052624817536
I           -0.18022683129156       -2.71812066940560       -1.35316294146937
11
 energy: -32.669410057045 gnorm: 0.012670869057 xtb: 6.6.1 (8d0f1dd)
C           -0.18022682249488        0.36094511510768       -1.09350693326209
C           -0.18022684213684        1.57037094335443       -0.39202006368110
C           -0.18022684392640        1.50012750436793        0.99703048784023
N           -0.18022676727384        0.36094513889224        1.64132993038511
C           -0.18022684355247       -0.77823723022437        0.99703046508594
C           -0.18022684188959       -0.84848071336246       -0.39202006936145
I           -0.18022682752642        0.36094509601096       -3.19583411575150
I           -0.18022686384792        3.43551954800074       -1.35262472689456
I           -0.18022686708154        3.15997810929932        2.28738077752328
I           -0.18022686719866       -2.43808791599317        2.28738077889802
I           -0.18022686407143       -2.71362929745330       -1.35262473078186
11
 energy: -32.669517956455 gnorm: 0.009549415125 xtb: 6.6.1 (8d0f1dd)
C           -0.18022683532877        0.36094511793410       -1.09096022363177
C           -0.18022683674241        1.56997684390056       -0.39159164217951
C           -0.18022684447891        1.50177584859816        0.99770684306206
N           -0.18022678343546        0.36094513746407        1.63733300986634
C           -0.18022684466670       -0.77988558462734        0.99770682824890
C           -0.18022683680296       -0.84808660990624       -0.39159164422007
I           -0.18022684134648        0.36094509974325       -3.18958690322035
I           -0.18022684960939        3.43098018400460       -1.35127715748794
I           -0.18022686455836        3.15967856544259        2.28252992399915
I           -0.18022686446688       -2.43778836847259        2.28252992596110
I           -0.18022684956369       -2.70908993608115       -1.35127716039790
11
 energy: -32.669580577291 gnorm: 0.007104062184 xtb: 6.6.1 (8d0f1dd)
C           -0.18022684307476        0.36094512024509       -1.09044046808634
C           -0.18022683450754        1.57078407500088       -0.39142476030921
C           -0.18022684343648        1.50337865074633        0.99914427417147
N           -0.18022679970452        0.36094513494832        1.63658241915469
C           -0.18022684355757       -0.78148839603058        0.99914426619026
C           -0.18022683557574       -0.84889383699338       -0.39142475833702
I           -0.18022684818260        0.36094510267407       -3.18607674901612
I           -0.18022684045058        3.42850184867458       -1.35025415025878
I           -0.18022686139592        3.16063703280781        2.27826293881696
I           -0.18022685973057       -2.43874683083849        2.27826293886089
I           -0.18022684138372       -2.70661160323462       -1.35025415118679
11
 energy: -32.669628610237 gnorm: 0.006765273798 xtb: 6.6.1 (8d0f1dd)
C           -0.18022686558523        0.36094512153094       -1.09059516823109
C           -0.18022683799659        1.57222370884937       -0.39116041421262
C           -0.18022683684930        1.50505284499296        1.00109617873470
N           -0.18022690590541        0.36094513229543        1.63721161986065
C           -0.18022683707072       -0.78316259855756        1.00109617600140
C           -0.18022683994760       -0.85033346663765       -0.39116040840246
I           -0.18022685856871        0.36094510463196       -3.18482963438754
I           -0.18022681229779        3.42806902484873       -1.34980142053885
I           -0.18022682291414        3.16347049666554        2.27473314757295
I           -0.18022681964999       -2.44158028797761        2.27473314302901
I           -0.18022681421451       -2.70617878264210       -1.34980141942615
11
 energy: -32.669671841616 gnorm: 0.007820615796 xtb: 6.6.1 (8d0f1dd)
C           -0.18022685670145        0.36094512159059       -1.09062254172258
C           -0.18022684716938        1.57366302946959       -0.39055283386623
C           -0.18022683299600        1.50643012364308        1.00324129306101
N           -0.18022692219355        0.36094513017722        1.63860529647261
C           -0.18022683326421       -0.78453988540544        1.00324129441685
C           -0.18022684876496       -0.85177278309737       -0.39055282517003
I           -0.18022684367661        0.36094510574307       -3.18512413292321
I           -0.18022682108706        3.42902243288039       -1.34982112175888
I           -0.18022681261982        3.16797717500161        2.27146425138966
I           -0.18022680923987       -2.44608695671006        2.27146423928364
I           -0.18022682328707       -2.70713219529268       -1.34982111918284
11
 energy: -32.669722475512 gnorm: 0.008505576065 xtb: 6.6.1 (8d0f1dd)
C           -0.18022684275803        0.36094512056054       -1.08999210543542
C           -0.18022685497879        1.57472699054626       -0.38931002742385
C           -0.18022683068421        1.50721957321529        1.00565551813668
N           -0.18022691797177        0.36094512818002        1.64089086491431
C           -0.18022683135102       -0.78532934456936        1.00565552324643
C           -0.18022685524165       -0.85283673957306       -0.38931001632535
I           -0.18022682823917        0.36094510674203       -3.18604282358590
I           -0.18022683569734        3.43046702154761       -1.35002205672900
I           -0.18022680948924        3.17435059946274        2.26700950005461
I           -0.18022680728784       -2.45246036666436        2.26700947658644
I           -0.18022683730094       -2.70857679144771       -1.35002205343894
11
 energy: -32.669790248682 gnorm: 0.007747536387 xtb: 6.6.1 (8d0f1dd)
C           -0.18022682953565        0.36094511851695       -1.08814708591942
C           -0.18022685903534        1.57499084212891       -0.38697697839672
C           -0.18022683181584        1.50693874013376        1.00858063095398
N           -0.18022690283576        0.36094512551800        1.64469233707332
C           -0.18022683280310       -0.78504852318184        1.00858064032756
C           -0.18022685720390       -0.85310058603820       -0.38697696495715
I           -0.18022681864968        0.36094510868686       -3.18684712104272
I           -0.18022684879048        3.43157508497517       -1.35013080162401
I           -0.18022681052493        3.18332246975213        2.25943899117519
I           -0.18022681041914       -2.46143221487636        2.25943895128775
I           -0.18022684938619       -2.70968486761536       -1.35013079887778
11
 energy: -32.669852726153 gnorm: 0.004915862020 xtb: 6.6.1 (8d0f1dd)
C           -0.18022682454040        0.36094511646969       -1.08537225313881
C           -0.18022685051375        1.57380672106259       -0.38410882550668
C           -0.18022684449006        1.50507971667823        1.01092949502333
N           -0.18022687760179        0.36094512324634        1.64905140084530
C           -0.18022683389070       -0.78318950976269        1.01092950840832
C           -0.18022685593292       -0.85191646251511       -0.38410881138781
I           -0.18022682339321        0.36094511187841       -3.18649377727431
I           -0.18022684330602        3.43096998163782       -1.34986896747302
I           -0.18022682605339        3.19161869675297        2.25021652636130
I           -0.18022681079284       -2.46972841871183        2.25021647109538
I           -0.18022686048492       -2.70907977873642       -1.34986896695301
11
 energy: -32.669881053448 gnorm: 0.001918088607 xtb: 6.6.1 (8d0f1dd)
C           -0.18022687193126        0.36094511456966       -1.08261514397733
C           -0.18022685964206        1.57181605412293       -0.38160448799085
C           -0.18022686463386        1.50308702479041        1.01212998507833
N           -0.18022683180006        0.36094512960543        1.65093960216059
C           -0.18022683750896       -0.78119680718507        1.01212999809482
C           -0.18022682645794       -0.84992580384538       -0.38160447545721
I           -0.18022678570049        0.36094507352217       -3.17924251161367
I           -0.18022685198306        3.42151183509087       -1.35758691584474
I           -0.18022682256511        3.19264805491232        2.24828135218549
I           -0.18022681956386       -2.47075781368804        2.24828137942838
I           -0.18022687921334       -2.69962156389530       -1.35758698206380
11
 energy: -32.669869940355 gnorm: 0.002109675356 xtb: 6.6.1 (8d0f1dd)
C           -0.18022688648044        0.36094512475583       -1.08355861049657
C           -0.18022686324816        1.57037629831696       -0.38166630102759
C           -0.18022683284817        1.50134084469910        1.01082467449756
N           -0.18022681241263        0.36094512807704        1.65084429628618
C           -0.18022684331350       -0.77945060758971        1.01082466035016
C           -0.18022686987673       -0.84848605567765       -0.38166630378869
I           -0.18022671970567        0.36094531607745       -3.18157986641330
I           -0.18022689886659        3.42691519933309       -1.34498539254536
I           -0.18022681542752        3.19741023052436        2.23873492891159
I           -0.18022681274873       -2.47552005575268        2.23873482744814
I           -0.18022689607187       -2.70502512476381       -1.34498511322211
11
 energy: -32.669889487379 gnorm: 0.000916418068 xtb: 6.6.1 (8d0f1dd)
C           -0.18022684362265        0.36094511925668       -1.08357946794265
C           -0.18022686085819        1.57093521411541       -0.38177385539181
C           -0.18022683114339        1.50186507419868        1.01123388579572
N           -0.18022684753437        0.36094512826712        1.65125975768312
C           -0.18022685490349       -0.77997484108706        1.01123388536887
C           -0.18022687043305       -0.84904496383865       -0.38177385081829
I           -0.18022672224224        0.36094488660443       -3.18259949938252
I           -0.18022691451095        3.42612932185700       -1.35012679119628
I           -0.18022680153477        3.19524010320720        2.24388736694369
I           -0.18022679574935       -2.47334981392521        2.24388743770590
I           -0.18022690846755       -2.70423893065559       -1.35012706876576
11
 energy: -32.669890964768 gnorm: 0.000612165245 xtb: 6.6.1 (8d0f1dd)
C           -0.18022694860190        0.36094511179178       -1.08342014246315
C           -0.18022688057722        1.57129980965541       -0.38183851622676
C           -0.18022689950532        1.50226240584698        1.01146635095285
N           -0.18022684181132        0.36094511338378        1.65166278768505
C           -0.18022675523949       -0.78037216956631        1.01146627864155
C           -0.18022680455481       -0.84940967731426       -0.38183853279512
I           -0.18022664763630        0.36094796080190       -3.18099993270422
I           -0.18022693630587        3.42366644664531       -1.35381491925400
I           -0.18022675458761        3.19341609691903        2.24632549834266
I           -0.18022683454142       -2.47152642948686        2.24632431354640
I           -0.18022694763873       -2.70177837067676       -1.35381138572525
